      66
 i =        1, E =     -1858.2484841508
 Cd        16.5802949522       15.7906169747       13.5980117908
 Cd        13.6871219932       16.9137388239       15.9715117936
 Cd        13.8769565412       12.8386409459       18.3472159095
 Cd        14.3404089708        9.8587953632       17.9305608695
 Cd        11.0696491844       10.1062971581       18.2775326194
 Cd         9.0477741446        9.0007601543       16.2900178637
 Cd         8.8923826174       12.6013826974       16.0428081310
 Cd         6.5902595159       14.8151065189       12.7488087643
 Cd         8.5111284189       14.8613260924        8.9013528394
 Cd        10.5977109394       12.2775964269        6.9933125086
 Cd        13.6392811288       11.2892151294        6.9360097903
 Cd        14.0348505670        8.8821290824       10.1000444233
 Cd        11.9781597697       11.7471722613       10.2344718896
 Cd        10.3459257774       14.7615469529       11.4587192444
 Cd        12.2501500355       17.7082866592        9.3817047284
 Cd        15.1239398703       17.8284360887       10.3428675741
 Cd        13.0103260891       17.9070036169       13.0567522951
 Cd         9.8227871200       16.3492687254       14.4655819252
 Cd        12.1968282948       13.9816065944       15.1166942874
 Cd        10.5256541739       10.6768550355       13.3878880609
 Cd         6.4690260627       11.1818136786       12.6586633423
 Cd         8.8577473295        9.2886873367       10.6490793842
 Cd        13.8378851707        7.1668407577       13.4859402449
 Cd        16.5577083011        9.8829381820       12.4001729366
 Cd        16.2865756140       11.7132620785        9.8725920015
 Cd        13.3476074473       14.7437046688        7.0472760421
 Cd        18.7056960396       12.8799858263       12.7555798299
 Cd        14.2487144264       14.2039892603       11.5327492643
 Cd        16.3813854271       13.0089578391       15.8675704076
 Cd        13.7842789999       10.5180149718       14.3502849246
 Cd         6.5498183592       12.2334856773        9.1587917763
 Cd        11.9727516578        7.0898760359       15.9793446820
 Cd        10.5888800933        7.1062324256       12.6726143944
  S        15.3694533196       17.8595690478       14.4090443890
  S        14.2497219308       14.5405096806       16.6205580715
  S        16.1149878617       11.6872663502       18.0130176126
  S        12.9026198071       10.9585647408       19.6877644029
  S        10.5669203264        7.5476576886       17.8626059253
  S         8.6622208464       10.9084308472       17.8534842107
  S         6.4708232492       12.8912873475       14.4704200993
  S         6.3220283564       14.4714858992       10.2399478281
  S         8.2430558050       13.1176829838        7.1257675151
  S        12.6438835856       13.1288816504        5.4182662532
  S        15.4588545458        9.8321521514        8.3019159001
  S        12.6335617371        9.7553878646       12.0392706086
  S         9.7317125468       12.2237670154       11.3183377008
  S        10.8623776252       15.6280932630        9.0228004661
  S        14.2360835434       16.8265208184        7.9903785498
  S        13.1976170893       19.5805245774       10.9559977837
  S        11.5872030237       17.9872868275       15.1731851634
  S        10.0752473584       14.7559508301       16.3028977557
  S        11.6496716162       11.4055936700       15.5576308516
  S         8.8340519501        8.8088324626       13.8913003032
  S        10.0537327350        7.2623039205       10.3083740823
  S        11.6634679427       10.3406224603        8.0749857632
  S        14.2895696730        8.4556382601       15.9032572386
  S        15.6530674503        7.4962814809       11.8665688875
  S        18.7050445590       11.2387286285       10.9553564413
  S        14.0734925265       12.9485681717        9.4032507609
  S        16.2431161382       15.6374331309       11.1090072139
  S        12.4516113947       15.1201094941       12.8852373358
  S        18.6255373774       14.3376427142       14.6918706794
  S        15.4789077873       12.1071842968       13.4203080497
  S         8.5991743646       16.4607975989       12.3842893863
  S         6.3761083811       10.0159184222       10.5143219930
  S        12.0951488802        5.4663594626       13.9933355703
      66
 i =        2, E =     -1858.3315122036
 Cd        16.6090145859       15.8024740553       13.6201603427
 Cd        13.6814035332       16.9073316157       15.9704206074
 Cd        13.8682861322       12.8494275857       18.2848605619
 Cd        14.3702067081        9.8534782017       17.8978519539
 Cd        11.0434006962       10.1145072106       18.1958844678
 Cd         9.0374409851        8.9809959156       16.2879641212
 Cd         8.8621455121       12.6176367844       16.0348619919
 Cd         6.4999393204       14.7831130001       12.7340750355
 Cd         8.4892057881       14.8696156196        8.9233034428
 Cd        10.5596590777       12.2937713468        7.0584193254
 Cd        13.6908019270       11.2635446322        7.0421100878
 Cd        14.0483920756        8.8854735852       10.1115750516
 Cd        11.9712575908       11.7208420847       10.2324803461
 Cd        10.3329567315       14.7637786361       11.4643696807
 Cd        12.2398761974       17.7362658506        9.3873169375
 Cd        15.1046020155       17.8050636454       10.3613632092
 Cd        13.0211156351       17.9253578347       13.0517670034
 Cd         9.8140267189       16.3540719726       14.4777234120
 Cd        12.1903336723       13.9524295836       15.1285964059
 Cd        10.5045650342       10.7047906929       13.3735269910
 Cd         6.3391386970       11.2095514793       12.6709292535
 Cd         8.8301055447        9.3022302853       10.6281287228
 Cd        13.8577092526        7.1601122213       13.4602587156
 Cd        16.5545262809        9.8799555074       12.3910999616
 Cd        16.3202094696       11.7014982014        9.8656320847
 Cd        13.3525509632       14.7766571829        7.1571536466
 Cd        18.9556960396       12.8827786954       12.7564652015
 Cd        14.2653879633       14.2059193788       11.5370905705
 Cd        16.4064105081       13.0095693444       15.8312789512
 Cd        13.7650820809       10.5191223934       14.3522336904
 Cd         6.4520446368       12.2244793904        9.1727716177
 Cd        11.9869100033        7.1015377832       15.9773342424
 Cd        10.5797688833        7.1129198542       12.6749114089
  S        15.3741917845       17.8430757117       14.3977386242
  S        14.2600566675       14.5530992573       16.5904972030
  S        16.1385271336       11.6879988542       17.9423555321
  S        12.8898376109       10.9568911405       19.5575494608
  S        10.5519781070        7.5540571073       17.8585900325
  S         8.6496930296       10.9109618551       17.8502775983
  S         6.3273600481       12.8748395684       14.4411855480
  S         6.2459056743       14.4808275476       10.2149959328
  S         8.2194845898       13.0932665226        7.1863078764
  S        12.6365830466       13.0953535427        5.5716508119
  S        15.4626524928        9.8296988848        8.2953605963
  S        12.6358480989        9.7448452247       12.0594509023
  S         9.7415934479       12.2051538247       11.3396014310
  S        10.8695128545       15.6184406019        9.0364092547
  S        14.2323098268       16.8653081697        7.9900463207
  S        13.2216758106       19.5830025354       10.9495839227
  S        11.5943480720       17.9843255174       15.1698986345
  S        10.0680104171       14.7445713954       16.3155948724
  S        11.6739110218       11.4138880358       15.5335784811
  S         8.8405717900        8.8124326184       13.8571457477
  S        10.0605670954        7.2608313020       10.3066231116
  S        11.6228534521       10.3138080483        8.0959952351
  S        14.2901912125        8.4502943648       15.8759913608
  S        15.6784275648        7.5211911352       11.8525051772
  S        18.8589861390       11.2409366013       10.9730248445
  S        14.0760641657       12.9655647783        9.4126682658
  S        16.2701709759       15.6602201558       11.1083771798
  S        12.4507649985       15.1317060516       12.8815581239
  S        18.8259317435       14.3328923167       14.6741726740
  S        15.5023611192       12.0880702640       13.4181937080
  S         8.5717091372       16.4322443261       12.3845236150
  S         6.2948905999       10.0412958548       10.5219568068
  S        12.0901055247        5.4556476339       14.0006550297
      66
 i =        3, E =     -1858.3651364498
 Cd        16.6516574080       15.8216146001       13.6392444257
 Cd        13.6719366168       16.9068130550       15.9647095472
 Cd        13.8549752259       12.8505128354       18.2139619178
 Cd        14.4126094030        9.8447961485       17.8798023772
 Cd        11.0231884621       10.1332546893       18.1163112523
 Cd         9.0160480641        8.9558911071       16.2856249232
 Cd         8.8178343829       12.6359022715       16.0343449875
 Cd         6.4830464422       14.7368058972       12.7124179393
 Cd         8.4788608949       14.8791359688        8.9431625972
 Cd        10.5197451802       12.3127941684        7.1112849549
 Cd        13.7358174755       11.2386420461        7.1347802210
 Cd        14.0651087633        8.8896617180       10.1312165823
 Cd        11.9643216654       11.6815934002       10.2301011304
 Cd        10.3172435878       14.7660558895       11.4773006905
 Cd        12.2184942673       17.7679659682        9.3947948842
 Cd        15.0824728678       17.7742763998       10.3894820686
 Cd        13.0349873337       17.9390156522       13.0438828052
 Cd         9.8011659351       16.3604745487       14.4905838619
 Cd        12.1794265961       13.9196816347       15.1377015107
 Cd        10.4757701907       10.7435929685       13.3543724492
 Cd         6.3727392179       11.2416369675       12.6783553989
 Cd         8.8064977899        9.3085061666       10.5971967277
 Cd        13.8841776366        7.1471659683       13.4219601860
 Cd        16.5544320479        9.8801710590       12.3846814377
 Cd        16.3422243264       11.6972285366        9.8456289006
 Cd        13.3481971853       14.7970431511        7.2468800116
 Cd        18.8356114253       12.8842457313       12.7555877191
 Cd        14.2902780464       14.2132324263       11.5496947662
 Cd        16.4454899183       13.0050007674       15.7777694863
 Cd        13.7477545228       10.5182976914       14.3496721986
 Cd         6.4493527465       12.2113384225        9.1917591622
 Cd        12.0023078518        7.1123128022       15.9790496228
 Cd        10.5701225161        7.1158455091       12.6769698979
  S        15.3849615363       17.8119390780       14.3845939257
  S        14.2838148205       14.5722407217       16.5417634562
  S        16.1753905268       11.6962721656       17.8907250119
  S        12.8697198750       10.9575517640       19.5425786410
  S        10.5354542821        7.5581276051       17.8496312482
  S         8.6248150242       10.9157508865       17.8349548606
  S         6.3631921249       12.8655528871       14.4104345942
  S         6.3134834078       14.5016655565       10.1869386104
  S         8.1810765601       13.0651956920        7.2475266236
  S        12.6355604690       13.0593626563        5.6553299065
  S        15.4831481331        9.8237954822        8.2995724756
  S        12.6396598058        9.7274877072       12.0870730239
  S         9.7488318437       12.1835772802       11.3685139095
  S        10.8681339313       15.6064725130        9.0552811764
  S        14.2287940904       16.9280269634        7.9926272895
  S        13.2531104228       19.6011027630       10.9460770911
  S        11.6003672049       17.9727437529       15.1647515992
  S        10.0558018045       14.7266100617       16.3298849485
  S        11.6975049633       11.4229837105       15.5044038238
  S         8.8505509675        8.8199013442       13.8179822300
  S        10.0603956441        7.2719102106       10.3090521539
  S        11.5735004559       10.2772849896        8.1323621094
  S        14.2903331076        8.4370196821       15.8310476439
  S        15.7110690799        7.5512612047       11.8328531416
  S        18.7724655845       11.2408624078       11.0000632434
  S        14.0996240388       12.9753875121        9.4333289492
  S        16.3072071991       15.6860081789       11.1200892592
  S        12.4500143591       15.1440335364       12.8769468835
  S        18.8091004704       14.3276361128       14.6485085662
  S        15.5360386807       12.0642381527       13.4137812809
  S         8.5312870731       16.3843208988       12.3920169340
  S         6.3603006058       10.0727128750       10.5284573427
  S        12.0857213890        5.4783427944       14.0092990888
      66
 i =        4, E =     -1858.3845167057
 Cd        16.7078481360       15.8382980015       13.6577742352
 Cd        13.6624804999       16.9089852266       15.9549793206
 Cd        13.8391583444       12.8319872011       18.1790256730
 Cd        14.4561824319        9.8426784082       17.8912440267
 Cd        11.0247225425       10.1683642790       18.0955284566
 Cd         8.9793635054        8.9295567582       16.2773011863
 Cd         8.7588953235       12.6545907496       16.0372031506
 Cd         6.4569136778       14.6946561559       12.6830868674
 Cd         8.4769755233       14.8923533607        8.9586772004
 Cd        10.4959700085       12.3235060899        7.1401463213
 Cd        13.7387397042       11.2262942062        7.1708844726
 Cd        14.0821063281        8.8978937635       10.1578961473
 Cd        11.9596517506       11.6354757058       10.2336466911
 Cd        10.3078663938       14.7602887750       11.5012242302
 Cd        12.1919991668       17.8056701040        9.4060214702
 Cd        15.0627627828       17.7539619012       10.4198042979
 Cd        13.0498210173       17.9512317260       13.0351813037
 Cd         9.7865636079       16.3631230782       14.5047648885
 Cd        12.1689055621       13.9046040208       15.1390663386
 Cd        10.4462470175       10.7797953843       13.3434930386
 Cd         6.3869302041       11.2548502460       12.6711024713
 Cd         8.7923108511        9.3187121892       10.5597849018
 Cd        13.9064328078        7.1345158366       13.3781957738
 Cd        16.5622431701        9.8872230386       12.3807127357
 Cd        16.3819715949       11.6979326010        9.8315837236
 Cd        13.3301364869       14.7908319078        7.2917499567
 Cd        18.8252543370       12.8878665724       12.7478560129
 Cd        14.3231989820       14.2288914452       11.5768155896
 Cd        16.4928187080       12.9960949326       15.7183973519
 Cd        13.7470058171       10.5110945728       14.3374925211
 Cd         6.4346992188       12.2150066167        9.2052039833
 Cd        12.0179659348        7.1270863823       15.9826537862
 Cd        10.5633383665        7.1233802001       12.6797213550
  S        15.3939209655       17.8058997821       14.3751150758
  S        14.3182818352       14.5738922093       16.4873358678
  S        16.2097374313       11.7079951916       17.8768335304
  S        12.8594341207       10.9605119808       19.6406892776
  S        10.5176736508        7.5632336210       17.8426583882
  S         8.5890549771       10.9138047469       17.8112706567
  S         6.3644010752       12.8720692691       14.4120355219
  S         6.2870220358       14.5201625590       10.1585696761
  S         8.1314452477       13.0303961238        7.2855960430
  S        12.6460433481       13.0335212002        5.5787972750
  S        15.5216081629        9.7968765261        8.3131375894
  S        12.6434821203        9.7027192821       12.1124679285
  S         9.7535457471       12.1792821154       11.3883245451
  S        10.8780658250       15.6046657993        9.0774584808
  S        14.2172005275       17.0050720810        7.9967125246
  S        13.2818793409       19.6093163437       10.9472236708
  S        11.5963989359       17.9753436093       15.1523783762
  S        10.0429047117       14.7114950396       16.3407039504
  S        11.7063139326       11.4243497659       15.4841924482
  S         8.8554723848        8.8352039407       13.7894213198
  S        10.0658475337        7.2727652399       10.3061422143
  S        11.5273569327       10.2438837608        8.1761857662
  S        14.2934263072        8.4278880422       15.7910425959
  S        15.7526875469        7.5688739436       11.8044942714
  S        18.7966943209       11.2243174112       11.0118082695
  S        14.1188263479       12.9828750054        9.4612639898
  S        16.3493098148       15.7052190320       11.1367862174
  S        12.4502735404       15.1524785198       12.8712576724
  S        18.7705457519       14.3357117950       14.6340757616
  S        15.5682069962       12.0404610455       13.4065573920
  S         8.4869233810       16.3314450469       12.4163628241
  S         6.3341491491       10.0912354333       10.5320654228
  S        12.0882765192        5.4781793993       14.0124426544
      66
 i =        5, E =     -1858.3952456991
 Cd        16.7773242740       15.8601540616       13.6791309609
 Cd        13.6566196308       16.9000331905       15.9392808374
 Cd        13.8289455662       12.7979194280       18.1167169449
 Cd        14.4999229826        9.8498090796       17.9120881084
 Cd        11.0323410237       10.2183261140       18.0664411658
 Cd         8.9360475577        8.9016635600       16.2601245785
 Cd         8.6729814443       12.6776536533       16.0365798055
 Cd         6.4198790873       14.6462900533       12.6352431689
 Cd         8.4803686422       14.9031830586        8.9740489322
 Cd        10.4863428567       12.3259798563        7.1800480230
 Cd        13.7128802151       11.2187798892        7.2131451724
 Cd        14.1077542632        8.9147552782       10.1901615018
 Cd        11.9663088857       11.5833560234       10.2529988388
 Cd        10.3055020135       14.7513171722       11.5375710211
 Cd        12.1657591261       17.8417012115        9.4149597143
 Cd        15.0493248620       17.7403631847       10.4477203549
 Cd        13.0658556082       17.9571922978       13.0291053056
 Cd         9.7671597485       16.3608811449       14.5235125365
 Cd        12.1617385349       13.9102945046       15.1350463279
 Cd        10.4190118342       10.8077574216       13.3584199866
 Cd         6.3697594594       11.2580046023       12.6602269729
 Cd         8.7767692990        9.3205993360       10.5101602063
 Cd        13.9266162956        7.1216858978       13.3239300143
 Cd        16.5862762583        9.8952053465       12.3772193281
 Cd        16.4281983828       11.7006754015        9.8119858152
 Cd        13.3086538406       14.7855788532        7.3314562011
 Cd        18.8358352702       12.8892814530       12.7260197263
 Cd        14.3724628054       14.2544343352       11.6192581295
 Cd        16.5497908802       12.9766225090       15.6624735406
 Cd        13.7620664500       10.5024383979       14.3210190914
 Cd         6.4079764651       12.2296342165        9.2207733748
 Cd        12.0346471969        7.1459378046       15.9845756677
 Cd        10.5599883887        7.1365661925       12.6829104291
  S        15.4015815136       17.8251826028       14.3687219855
  S        14.3525814091       14.5458479405       16.4276370828
  S        16.2287925173       11.7240953017       17.8631288484
  S        12.8699227358       10.9677301022       19.6619951975
  S        10.4987289242        7.5847996087       17.8343705251
  S         8.5541389655       10.8993720429       17.7907995296
  S         6.3344153901       12.8798295079       14.4344420917
  S         6.2641738330       14.5488901134       10.1285983275
  S         8.0914722263       12.9937464357        7.3286991444
  S        12.6618178943       13.0055635515        5.5586130069
  S        15.5582430925        9.7750867484        8.3356664720
  S        12.6413859979        9.6655140080       12.1296713649
  S         9.7453387484       12.1968340775       11.3843734183
  S        10.8824454657       15.6064376365        9.1077154699
  S        14.1717109140       17.0678033097        7.9884754518
  S        13.3050742488       19.6129916528       10.9618832623
  S        11.5825104348       17.9871609358       15.1284575679
  S        10.0311835829       14.7007485335       16.3472452796
  S        11.7075288471       11.4151551998       15.4756502787
  S         8.8517153865        8.8594171871       13.7694367524
  S        10.0642301954        7.2876107521       10.3006918280
  S        11.4833380363       10.2190506960        8.2181074274
  S        14.3049772200        8.4358415310       15.7766211857
  S        15.8069376243        7.5700390168       11.7700087620
  S        18.7627615874       11.1999360033       11.0167934208
  S        14.1442869361       12.9742820848        9.4956839139
  S        16.3956867281       15.7194177204       11.1583944916
  S        12.4526122767       15.1570132604       12.8656507600
  S        18.7888611071       14.3543631297       14.6262336149
  S        15.5985261670       12.0165565109       13.3909511104
  S         8.4435711806       16.2697326638       12.4573890638
  S         6.3211838101       10.0963761468       10.5360137516
  S        12.1023554306        5.4714282570       14.0059910401
      66
 i =        6, E =     -1858.4001379093
 Cd        16.8137832299       15.8945471674       13.6957283935
 Cd        13.6549472864       16.8829081528       15.9174444226
 Cd        13.8326599770       12.7765226160       18.0787496948
 Cd        14.5264181944        9.8542595246       17.9274490950
 Cd        11.0325531548       10.2560476585       18.0503223082
 Cd         8.9098736133        8.8895797393       16.2462583276
 Cd         8.6009529694       12.6926365243       16.0361932105
 Cd         6.4079231079       14.6100552878       12.6051524171
 Cd         8.4910863262       14.9005788445        8.9788564686
 Cd        10.4877990971       12.3150557256        7.1957257314
 Cd        13.6880609665       11.2064926754        7.2293311220
 Cd        14.1385613725        8.9317492214       10.2102585580
 Cd        11.9808733101       11.5603562737       10.2913604172
 Cd        10.3064805041       14.7432195082       11.5666204445
 Cd        12.1502930792       17.8524527767        9.4221061118
 Cd        15.0490389284       17.7398893167       10.4508284413
 Cd        13.0731159244       17.9518058550       13.0299762362
 Cd         9.7518194555       16.3574399534       14.5417098157
 Cd        12.1528366751       13.9222253473       15.1270636317
 Cd        10.4001926893       10.8273544761       13.3798001246
 Cd         6.3468707073       11.2554955829       12.6676325212
 Cd         8.7676189577        9.3166452860       10.4740056349
 Cd        13.9413659512        7.1193491937       13.2877818522
 Cd        16.6154071607        9.8836075529       12.3686958490
 Cd        16.4576243318       11.7018098819        9.7985695851
 Cd        13.2933879272       14.7858165651        7.3370145436
 Cd        18.8081573287       12.8959381848       12.7063430310
 Cd        14.4123440501       14.2693270243       11.6506058445
 Cd        16.5855204024       12.9512476354       15.6446734806
 Cd        13.7784891049       10.5013014928       14.3156076844
 Cd         6.3903175166       12.2428146407        9.2346652303
 Cd        12.0444813134        7.1589922251       15.9846117952
 Cd        10.5618258710        7.1469647910       12.6825552556
  S        15.4093586166       17.8369972243       14.3707203533
  S        14.3685197832       14.5178673550       16.3831034771
  S        16.2350546270       11.7398320092       17.8568763007
  S        12.8869590205       10.9738181085       19.6659105847
  S        10.4946073440        7.6116290825       17.8259029097
  S         8.5370961914       10.8890152390       17.7856112694
  S         6.3119227628       12.8747277944       14.4432865317
  S         6.2511539154       14.5764310751       10.1096714701
  S         8.0915291428       12.9787236815        7.3372573988
  S        12.6684935741       12.9919661761        5.5484592435
  S        15.5603110301        9.7755439880        8.3467751545
  S        12.6333869717        9.6314858483       12.1315862418
  S         9.7396318068       12.2111786711       11.3707921532
  S        10.8771658338       15.6130440650        9.1328822905
  S        14.1222892508       17.0891003652        7.9822956404
  S        13.3098887646       19.6206315616       10.9815419951
  S        11.5764759936       17.9859671266       15.1102135238
  S        10.0242609095       14.6889427030       16.3501746759
  S        11.7134112700       11.4089256808       15.4759497080
  S         8.8353959305        8.8749149850       13.7640842282
  S        10.0591068276        7.2984748065       10.2975337946
  S        11.4605135815       10.2127693894        8.2351010696
  S        14.3200852348        8.4472551934       15.7854561500
  S        15.8425164447        7.5572215670       11.7576655387
  S        18.7887404789       11.1825136799       11.0143153656
  S        14.1547787230       12.9615859393        9.5279205493
  S        16.4221544132       15.7255348623       11.1751568389
  S        12.4652697117       15.1561984703       12.8649777293
  S        18.7611452956       14.3618948126       14.6148952422
  S        15.6089424739       12.0110298362       13.3788347680
  S         8.4247190670       16.2311790491       12.4902672050
  S         6.3080685263       10.0944290986       10.5388310794
  S        12.1212265569        5.4932121760       13.9920371404
      66
 i =        7, E =     -1858.4043009030
 Cd        16.8308298391       15.9440901006       13.7139952494
 Cd        13.6553132806       16.8519993521       15.8876602159
 Cd        13.8438204357       12.7650965370       18.0611345531
 Cd        14.5482365715        9.8534742245       17.9362560280
 Cd        11.0286904824       10.2936907728       18.0433057010
 Cd         8.8922005268        8.8880697967       16.2348733249
 Cd         8.5285112245       12.7043623248       16.0409052318
 Cd         6.4007007748       14.5753732229       12.5836871415
 Cd         8.5070835696       14.8859569297        8.9757219800
 Cd        10.4953329229       12.2950484978        7.1936164002
 Cd        13.6564605164       11.1935160785        7.2274482051
 Cd        14.1778121108        8.9500305075       10.2311275710
 Cd        12.0022674175       11.5476394649       10.3411383618
 Cd        10.3099668365       14.7358362762       11.5942728505
 Cd        12.1319522118       17.8618458671        9.4384385634
 Cd        15.0546674809       17.7512545797       10.4382042053
 Cd        13.0765313065       17.9543808675       13.0309211782
 Cd         9.7370522565       16.3535199105       14.5673468108
 Cd        12.1368432322       13.9308396230       15.1157355701
 Cd        10.3751908727       10.8527670817       13.4012967792
 Cd         6.3331732651       11.2372726658       12.6841680142
 Cd         8.7582585870        9.3122456048       10.4395577599
 Cd        13.9539994129        7.1278873375       13.2627873713
 Cd        16.6535722569        9.8629350739       12.3566823390
 Cd        16.4693895330       11.7046185333        9.7831052850
 Cd        13.2756098960       14.7845535199        7.3202295797
 Cd        18.8059443940       12.9070169721       12.6805290904
 Cd        14.4551128351       14.2737763367       11.6787112172
 Cd        16.6102576306       12.9195277845       15.6451779047
 Cd        13.7923957465       10.5016151360       14.3148270376
 Cd         6.3818047232       12.2575179129        9.2491034930
 Cd        12.0566375007        7.1761106951       15.9817518999
 Cd        10.5651535574        7.1640439774       12.6801720009
  S        15.4151325885       17.8585715206       14.3812492028
  S        14.3746085080       14.4876524159       16.3386677506
  S        16.2432711819       11.7549184891       17.8575139391
  S        12.9072436336       10.9804107865       19.6659488703
  S        10.5006802364        7.6462680780       17.8128069095
  S         8.5263423814       10.8868661727       17.7804366734
  S         6.2916608310       12.8640195001       14.4466175355
  S         6.2337360613       14.6060252052       10.0905268591
  S         8.1103089561       12.9762626076        7.3317780838
  S        12.6715790075       12.9847584860        5.5426183698
  S        15.5477481683        9.7882600513        8.3476900467
  S        12.6246495200        9.5923402795       12.1338821264
  S         9.7387401758       12.2142685784       11.3621235964
  S        10.8680251042       15.6243665016        9.1627529594
  S        14.0694891566       17.0871128564        7.9750086127
  S        13.3063993086       19.6270844187       11.0038333462
  S        11.5776499178       17.9872096062       15.0970794250
  S        10.0121345071       14.6650353306       16.3547436547
  S        11.7280217397       11.4077483953       15.4754555438
  S         8.8081631602        8.8883803475       13.7624406052
  S        10.0506397901        7.3020904079       10.2923330315
  S        11.4511398814       10.2201856651        8.2507566917
  S        14.3404702746        8.4601863692       15.8058455836
  S        15.8793666521        7.5334147724       11.7543551057
  S        18.7484937718       11.1695879811       11.0106827624
  S        14.1648738767       12.9431081251        9.5680375994
  S        16.4411942016       15.7368103704       11.1855821108