      66
 i =        1, E =     -1858.2484841508
 Cd         0.0053530448        0.0060654866        0.0067891891
 Cd        -0.0022875858       -0.0021341742        0.0004147944
 Cd        -0.0049692085        0.0028213399       -0.0129632345
 Cd         0.0060517809       -0.0011154018       -0.0090057877
 Cd        -0.0063478989        0.0022939314       -0.0191723259
 Cd        -0.0019569229       -0.0039695495        0.0056218325
 Cd        -0.0070987456        0.0057616144       -0.0020354257
 Cd        -0.0220797552       -0.0093681845       -0.0015820755
 Cd        -0.0055845582        0.0015872740        0.0047029079
 Cd        -0.0129916512        0.0071877675        0.0160833517
 Cd         0.0163470761       -0.0048862224        0.0253099116
 Cd         0.0037319950        0.0004524981        0.0034233546
 Cd        -0.0030183399       -0.0072362535        0.0001450353
 Cd        -0.0031418413        0.0014342395        0.0019303999
 Cd        -0.0024421501        0.0084096150        0.0021118706
 Cd        -0.0049367546       -0.0068664708        0.0055314513
 Cd         0.0027899277        0.0046970943       -0.0014073093
 Cd        -0.0014462210        0.0019214754        0.0042301334
 Cd        -0.0022550409       -0.0091087614        0.0058124104
 Cd        -0.0058490208        0.0074215401       -0.0047805775
 Cd        -0.0337997145        0.0106810575        0.0083860067
 Cd        -0.0073430477        0.0053201092       -0.0052584337
 Cd         0.0072987386       -0.0008555775       -0.0076246491
 Cd        -0.0015323125       -0.0023636254       -0.0026976458
 Cd         0.0040957212       -0.0022585702       -0.0041563252
 Cd         0.0023882112        0.0112489956        0.0309619354
 Cd         0.0676610124        0.0012606352        0.0007139828
 Cd         0.0031304208       -0.0008608892        0.0002405542
 Cd         0.0059235608       -0.0004830573       -0.0077463945
 Cd        -0.0070137425       -0.0014375015        0.0019769968
 Cd        -0.0243334461       -0.0038975048        0.0033346375
 Cd         0.0041352561        0.0026626127       -0.0009227323
 Cd        -0.0027035266        0.0015952203        0.0001790977
  S         0.0032578837       -0.0067331121       -0.0045552043
  S         0.0024731783        0.0034711778       -0.0080507084
  S         0.0092112195        0.0006389919       -0.0221807689
  S        -0.0028633314       -0.0007221077       -0.0406590579
  S        -0.0044754989        0.0024916327       -0.0045477573
  S        -0.0027293113       -0.0008152992       -0.0052817382
  S        -0.0376844514       -0.0054570869       -0.0107334597
  S        -0.0250330357        0.0027798259       -0.0072331823
  S        -0.0045999964       -0.0064137367        0.0185444427
  S        -0.0016908302       -0.0097591244        0.0511059388
  S         0.0012132853        0.0000401800       -0.0024039433
  S         0.0003245149       -0.0025298710        0.0058631603
  S         0.0032156776       -0.0058500806        0.0057428622
  S         0.0020399765       -0.0032304614        0.0034826943
  S        -0.0020744800        0.0070246726       -0.0028946794
  S         0.0062924421        0.0015292592       -0.0019668937
  S         0.0015390877       -0.0020039851       -0.0010443809
  S        -0.0020658950       -0.0047120192        0.0033169860
  S         0.0075008136        0.0026372249       -0.0063269284
  S         0.0015613661        0.0004267108       -0.0131209038
  S         0.0034292260       -0.0030510209       -0.0002861430
  S        -0.0122802753       -0.0100707359        0.0071088836
  S        -0.0003391459       -0.0014215593       -0.0086885524
  S         0.0058584647        0.0073534937       -0.0027134125
  S         0.0459920874        0.0001981225        0.0058574324
  S         0.0029215923        0.0049714856        0.0034712386
  S         0.0082511303        0.0071376794       -0.0010480661
  S        -0.0003800723        0.0040603923       -0.0033902617
  S         0.0532271973       -0.0021816992       -0.0045467308
  S         0.0072938022       -0.0036225309       -0.0010951786
  S        -0.0071651135       -0.0071648007       -0.0012440448
  S        -0.0252169603        0.0062632372       -0.0014367351
  S        -0.0024498682       -0.0012008237        0.0026009954
      66
 i =        2, E =     -1858.3315122036
 Cd         0.0083957945        0.0021403169        0.0033488003
 Cd        -0.0018786191       -0.0004413895       -0.0004676141
 Cd        -0.0020721365        0.0008713837       -0.0131790039
 Cd         0.0077604006       -0.0018419893       -0.0005364437
 Cd        -0.0042782606        0.0025911780       -0.0134621540
 Cd        -0.0036942968       -0.0038393736        0.0008182679
 Cd        -0.0072295249        0.0032663310        0.0002545433
 Cd         0.0028346882       -0.0073561267       -0.0037594566
 Cd        -0.0044305230        0.0010467083        0.0046956021
 Cd        -0.0072808859        0.0043654776        0.0055535541
 Cd         0.0077205853       -0.0028872499        0.0110492032
 Cd         0.0019799724        0.0006945176        0.0039407183
 Cd        -0.0016727492       -0.0068849095       -0.0003869094
 Cd        -0.0019887719        0.0006325469        0.0026882208
 Cd        -0.0033479657        0.0053728241        0.0014586835
 Cd        -0.0030667643       -0.0049686024        0.0047354037
 Cd         0.0019968927        0.0014727091       -0.0013747105
 Cd        -0.0018542643        0.0014119543        0.0016603914
 Cd        -0.0016803764       -0.0051574581        0.0016547481
 Cd        -0.0050481096        0.0060256961       -0.0034280308
 Cd         0.0186264018        0.0052649457        0.0011570138
 Cd        -0.0064593439        0.0031721482       -0.0048037252
 Cd         0.0037519397       -0.0022700014       -0.0060638894
 Cd         0.0007794966        0.0011490773       -0.0005981884
 Cd         0.0063703113       -0.0006014053       -0.0017568607
 Cd        -0.0008650759        0.0029201293        0.0117752576
 Cd        -0.0498840343        0.0003362327        0.0001123206
 Cd         0.0037822289        0.0012260837        0.0025080324
 Cd         0.0072272384       -0.0007410541       -0.0103253254
 Cd        -0.0025745976       -0.0008596946       -0.0003892779
 Cd         0.0068115886       -0.0017843172        0.0034897199
 Cd         0.0029968798        0.0013615465       -0.0005318899
 Cd        -0.0015128375        0.0005021468        0.0005809647
  S         0.0023046580       -0.0041400325       -0.0020811821
  S         0.0039461959        0.0032029626       -0.0083029185
  S         0.0064079687        0.0009939474       -0.0034000373
  S        -0.0030026348        0.0006373854        0.0126376804
  S        -0.0031682920        0.0010744581        0.0013053350
  S        -0.0042417913        0.0003043670       -0.0005452532
  S         0.0203005183       -0.0007414123       -0.0040316940
  S         0.0269685422        0.0041668694       -0.0059929198
  S        -0.0059279762       -0.0050208167        0.0065048675
  S        -0.0002029824       -0.0061239020       -0.0025817792
  S         0.0044007275       -0.0015030306        0.0011211939
  S         0.0008830070       -0.0031684756        0.0040019609
  S         0.0010006340       -0.0036859161        0.0044427860
  S         0.0003332877       -0.0015190277        0.0031508272
  S        -0.0004730298        0.0112350346        0.0013818800
  S         0.0047047310        0.0028319425       -0.0005526621
  S         0.0003236261       -0.0019672408       -0.0010719887
  S        -0.0023490419       -0.0034853627        0.0023432668
  S         0.0033158422        0.0015882149       -0.0040076271
  S         0.0018193396        0.0013598518       -0.0072045689
  S         0.0003836186        0.0008543592        0.0000029062
  S        -0.0086736313       -0.0082541790        0.0094534982
  S        -0.0000344257       -0.0025394829       -0.0078244880
  S         0.0054075983        0.0041750967       -0.0036236333
  S        -0.0370391952       -0.0001882947        0.0031295657
  S         0.0040639778        0.0017353303        0.0038594135
  S         0.0057866563        0.0042416579        0.0015876600
  S        -0.0000992490        0.0019661637       -0.0016156834
  S        -0.0214089780       -0.0004263969       -0.0046395628
  S         0.0061807335       -0.0031082216       -0.0011089612
  S        -0.0069555635       -0.0086129900        0.0017264758
  S         0.0257057391        0.0035332021        0.0002948658
  S        -0.0002662620        0.0045812739        0.0013277595
      66
 i =        3, E =     -1858.3651364498
 Cd         0.0079044395       -0.0002151720        0.0015756049
 Cd        -0.0006475042       -0.0004976858       -0.0008094075
 Cd        -0.0007522001       -0.0032263022       -0.0028892292
 Cd         0.0053406878        0.0005681596        0.0050425421
 Cd         0.0012055997        0.0043307776        0.0005463162
 Cd        -0.0050426819       -0.0033231193       -0.0036395119
 Cd        -0.0071697525        0.0016543178        0.0002716996
 Cd        -0.0057926379       -0.0034157912       -0.0049908746
 Cd         0.0013231538        0.0022899005        0.0017383941
 Cd        -0.0007981322        0.0002433305        0.0007612005
 Cd        -0.0027131936       -0.0004788008       -0.0006044966
 Cd         0.0009465699        0.0013631705        0.0036503382
 Cd        -0.0000821461       -0.0054168553        0.0002674274
 Cd         0.0000373680       -0.0013087972        0.0032830408
 Cd        -0.0028127062        0.0038851039        0.0010313394
 Cd        -0.0016621626       -0.0004140161        0.0029590212
 Cd         0.0014799699        0.0012923397       -0.0012366048
 Cd        -0.0019360414       -0.0001682174        0.0006876945
 Cd        -0.0005935028        0.0003905255       -0.0010514346
 Cd        -0.0032110462        0.0029525061        0.0000093899
 Cd        -0.0019920358       -0.0024234400       -0.0051788723
 Cd        -0.0002421347       -0.0000658166       -0.0043294096
 Cd         0.0015918491       -0.0007469628       -0.0044794610
 Cd         0.0019499523        0.0020828183        0.0001130352
 Cd         0.0054791983        0.0008159332       -0.0005922693
 Cd        -0.0022098628       -0.0012686384        0.0019813314
 Cd         0.0097712970        0.0000864667       -0.0017293851
 Cd         0.0038716056        0.0027233096        0.0045408121
 Cd         0.0059170355       -0.0007958872       -0.0078412368
 Cd         0.0019728703       -0.0008422443       -0.0023641183
 Cd        -0.0046274544        0.0018028698        0.0011552193
 Cd         0.0018977533        0.0021616191        0.0001753152
 Cd        -0.0006689552        0.0017696945        0.0001183653
  S         0.0003529825        0.0034588300       -0.0001730390
  S         0.0039362101       -0.0005049600       -0.0062944636
  S         0.0019569747        0.0007227236        0.0046129371
  S        -0.0000962349        0.0007306908        0.0235051342
  S        -0.0020833540        0.0005394943        0.0031181279
  S        -0.0048228449       -0.0002126356        0.0010077986
  S        -0.0045329592        0.0029170789        0.0047607362
  S        -0.0077110275        0.0019689576       -0.0017432402
  S        -0.0059652757       -0.0041968969       -0.0004792003
  S         0.0010613780       -0.0027001417       -0.0320169909
  S         0.0055945139       -0.0042042243        0.0025472642
  S         0.0008483814       -0.0033678741        0.0014224192
  S        -0.0002432320        0.0012487469        0.0010532567
  S         0.0007767467        0.0005487496        0.0024654286
  S        -0.0018651951        0.0093096445        0.0016390974
  S         0.0025540658       -0.0011159300        0.0007268355
  S        -0.0014967199        0.0024954394       -0.0016800716
  S        -0.0013787724       -0.0007981141        0.0008991318
  S        -0.0008169594       -0.0005392213       -0.0008991420
  S         0.0003122051        0.0024662694       -0.0008431007
  S        -0.0001519400        0.0012743873       -0.0004529235
  S        -0.0044396741       -0.0035041435        0.0067839829
  S         0.0006515830       -0.0009778852       -0.0034022351
  S         0.0050020121        0.0000854072       -0.0038309142
  S         0.0109653635       -0.0028982630       -0.0003725501
  S         0.0023014384       -0.0002535375        0.0032613104
  S         0.0041056140        0.0009677097        0.0020893819
  S         0.0001923397        0.0000975760       -0.0006198627
  S        -0.0038297117        0.0024680258       -0.0005082436
  S         0.0028281119       -0.0024011247       -0.0008576394
  S        -0.0045435783       -0.0057068476        0.0045617492
  S        -0.0085674592        0.0012382128        0.0019470452
  S         0.0010790559       -0.0049776563       -0.0003095526
      66
 i =        4, E =     -1858.3845167057
 Cd         0.0047274980        0.0007730963        0.0007651534
 Cd         0.0003992895       -0.0013792315       -0.0014171670
 Cd         0.0008993376       -0.0037275285       -0.0048719138
 Cd         0.0019640267        0.0022289127        0.0037474188
 Cd         0.0020437328        0.0041195397       -0.0005180545
 Cd        -0.0030423572       -0.0017430870       -0.0037459927
 Cd        -0.0066820264        0.0010856337       -0.0004538626
 Cd        -0.0042463791       -0.0020708257       -0.0050577639
 Cd         0.0016133360        0.0006157264        0.0004176416
 Cd         0.0025710139       -0.0020240574        0.0025862782
 Cd        -0.0056474404        0.0000541728        0.0015876704
 Cd         0.0015944113        0.0018627787        0.0022041992
 Cd         0.0017483378       -0.0027991919        0.0022851576
 Cd         0.0008225919       -0.0012148575        0.0029080485
 Cd        -0.0012009491        0.0013393884        0.0001528328
 Cd         0.0000511918        0.0008249851        0.0008159710
 Cd         0.0008826070       -0.0002020376       -0.0002508655
 Cd        -0.0016629562       -0.0009428030        0.0008265826
 Cd         0.0001877286        0.0031454889       -0.0015482440
 Cd        -0.0009635896        0.0001617185        0.0040865893
 Cd        -0.0063561460       -0.0026940905       -0.0031071224
 Cd         0.0006559482       -0.0023141894       -0.0035711137
 Cd         0.0003068344       -0.0004203568       -0.0031498929
 Cd         0.0029321139        0.0010364075        0.0000453365
 Cd         0.0039919093        0.0002746542       -0.0006240566
 Cd        -0.0014890714       -0.0007119302        0.0001621930
 Cd         0.0095686960       -0.0011827610       -0.0037402831
 Cd         0.0042142762        0.0030545012        0.0042870433
 Cd         0.0034891767       -0.0018231074       -0.0022118929
 Cd         0.0031351090       -0.0001797508       -0.0016060816
 Cd        -0.0041183094        0.0022707724        0.0006093273
 Cd         0.0008112720        0.0014531421       -0.0000278644
 Cd         0.0003175021        0.0013493806        0.0002337741
  S        -0.0002902063        0.0045708160        0.0004940393
  S         0.0017161279       -0.0045125712       -0.0030508288
  S        -0.0018785345        0.0011228829        0.0010836131
  S         0.0026187058        0.0004736523       -0.0036620846
  S        -0.0008369788        0.0021378367        0.0006682858
  S        -0.0020091692       -0.0014982525        0.0006733731
  S        -0.0073927860        0.0011902308        0.0049532795
  S        -0.0041680037        0.0021553864       -0.0003210158
  S        -0.0015636411       -0.0017019226        0.0010698956
  S         0.0012194144       -0.0011273187       -0.0025209791
  S         0.0016992805       -0.0011112730        0.0021356975
  S        -0.0002410549       -0.0031788015       -0.0008469964
  S        -0.0018285734        0.0037405900       -0.0028608296
  S        -0.0004679808        0.0006947408        0.0020415001
  S        -0.0052270926        0.0017716807       -0.0011322004
  S         0.0003267881       -0.0010896160        0.0021414663
  S        -0.0018204732        0.0023225217       -0.0020758240
  S        -0.0003019486        0.0005717066       -0.0002857716
  S        -0.0014545992       -0.0018413185        0.0008281484
  S        -0.0010036706        0.0023251113        0.0016003705
  S        -0.0015936642        0.0033713448       -0.0004629306
  S        -0.0012244136        0.0009688736        0.0011652724
  S         0.0013941376        0.0015662983        0.0016731194
  S         0.0037014652       -0.0022054295       -0.0023229913
  S        -0.0021137868       -0.0016475936       -0.0006203796
  S         0.0009294711       -0.0023689753        0.0014908324
  S         0.0019229740       -0.0006625449        0.0018615375
  S         0.0004315468       -0.0006731574        0.0001606473
  S         0.0082459875        0.0028028086        0.0013357406
  S         0.0006279837       -0.0013787783       -0.0014211735
  S        -0.0016559014       -0.0034369390        0.0042407679
  S        -0.0031777594       -0.0009554118        0.0013696626
  S         0.0020174732       -0.0026390775       -0.0014660223
      66
 i =        5, E =     -1858.3952456991
 Cd         0.0002512009        0.0038462105        0.0011401456
 Cd         0.0002853150       -0.0019080457       -0.0023737363
 Cd         0.0017012207       -0.0013437864       -0.0009241200
 Cd         0.0005842042        0.0000391066        0.0002735199
 Cd        -0.0005320007        0.0021809147       -0.0000506722
 Cd        -0.0008486438        0.0002191392       -0.0017047759
 Cd        -0.0048162105        0.0004736244       -0.0000656446
 Cd         0.0011128091       -0.0018304723       -0.0013974971
 Cd         0.0021781364       -0.0010826354       -0.0006888153
 Cd         0.0017598412       -0.0025604737       -0.0002412710
 Cd        -0.0030788597       -0.0014327188       -0.0003933683
 Cd         0.0030770619        0.0015563587        0.0003898261
 Cd         0.0019294154        0.0005364172        0.0047772718
 Cd         0.0002466883       -0.0007466312        0.0016909948
 Cd        -0.0004954729       -0.0015437172        0.0001694214
 Cd         0.0011438340        0.0010181334       -0.0017259819
 Cd        -0.0001530882       -0.0014415059        0.0008262182
 Cd        -0.0011336186       -0.0005484934        0.0012182756
 Cd        -0.0007504798        0.0019238583       -0.0012769230
 Cd        -0.0006340185        0.0007464463        0.0029348542
 Cd        -0.0026739679       -0.0001137944        0.0029722653
 Cd         0.0007836567       -0.0018962149       -0.0020064432
 Cd         0.0002873357        0.0002902406       -0.0013976066
 Cd         0.0027529062       -0.0024856762       -0.0010145151
 Cd         0.0001674520        0.0001117165       -0.0010439723
 Cd        -0.0007482787        0.0003881998       -0.0024057307
 Cd        -0.0043025093        0.0011266694       -0.0012535675
 Cd         0.0029092845        0.0007439379        0.0018110922
 Cd         0.0010580375       -0.0026268230        0.0020365806
 Cd         0.0016775598        0.0005875593        0.0003671913
 Cd        -0.0006261806        0.0009765082        0.0008331360
 Cd         0.0000454738        0.0005131049       -0.0000592748
 Cd         0.0008103976        0.0004332341       -0.0000237570
  S         0.0005141191        0.0004617836        0.0008627386
  S        -0.0001189015       -0.0026348871       -0.0022351461
  S        -0.0011053509        0.0015559851       -0.0002997784
  S         0.0022100093        0.0005787036       -0.0030020736
  S         0.0010054927        0.0026145478       -0.0012008371
  S         0.0002717480       -0.0006349494        0.0004485295
  S        -0.0016594075       -0.0017613315       -0.0003485995
  S        -0.0011882589        0.0021440938       -0.0000940063
  S         0.0030582387        0.0005612924       -0.0017014642
  S        -0.0000308096        0.0001755114        0.0025245618
  S        -0.0027017191        0.0018130292        0.0003954227
  S        -0.0011068006       -0.0025386461       -0.0012530363
  S        -0.0004274814        0.0014279012       -0.0022386902
  S        -0.0013404968        0.0010119712        0.0016327934
  S        -0.0047003200       -0.0020405943       -0.0006826798
  S        -0.0011099281        0.0011425412        0.0021895192
  S         0.0002221602       -0.0009511876       -0.0011651128
  S        -0.0000662723       -0.0007796092       -0.0001504157
  S         0.0005617456       -0.0005978913        0.0006491973
  S        -0.0023401681        0.0007393872        0.0016344113
  S        -0.0012705946        0.0015043107       -0.0001795456
  S         0.0003919884        0.0019344712       -0.0017499314
  S         0.0016288838        0.0017425508        0.0033454303
  S         0.0015511205       -0.0022617177        0.0006320985
  S         0.0063940766       -0.0010757735       -0.0007977402
  S        -0.0000447110       -0.0018207514        0.0021490198
  S         0.0002370406       -0.0004657260        0.0008420477
  S         0.0018107322       -0.0005938512        0.0007505556
  S        -0.0045744768       -0.0002608944       -0.0011477005
  S        -0.0009136090        0.0008744112       -0.0007534179
  S         0.0006290302       -0.0012109700        0.0022741475
  S        -0.0016844522       -0.0011244890       -0.0005943426
  S         0.0020996256        0.0044032098       -0.0018760123
      66
 i =        6, E =     -1858.4001379093
 Cd        -0.0021104107        0.0038575792        0.0009189020
 Cd         0.0002760455       -0.0028517836       -0.0017663065
 Cd         0.0010934751        0.0005422833        0.0018351794
 Cd        -0.0000880501       -0.0014165538       -0.0016108150
 Cd        -0.0008939826        0.0010868728        0.0002865798
 Cd         0.0005917982        0.0012465769        0.0001934082
 Cd        -0.0023163864        0.0000774904        0.0007143112
 Cd         0.0007518853       -0.0011389623        0.0005078890
 Cd         0.0013576362       -0.0019686969       -0.0012225774
 Cd         0.0011570002       -0.0019429139       -0.0016991296
 Cd        -0.0019992886       -0.0008039184       -0.0013261380
 Cd         0.0023740847        0.0007693127        0.0006315690
 Cd         0.0014996505        0.0009709493        0.0031416553
 Cd         0.0002845664        0.0000200000        0.0006595283
 Cd        -0.0009561205        0.0000690698        0.0016005647
 Cd         0.0009247891        0.0015584024       -0.0022339872
 Cd        -0.0003756878        0.0008782793        0.0000979594
 Cd        -0.0004431126       -0.0001066117        0.0016156306
 Cd        -0.0013111450       -0.0001466765       -0.0007062242
 Cd        -0.0014714678        0.0015045289        0.0007876646
 Cd         0.0010111141       -0.0018229614        0.0023513438
 Cd        -0.0003878817       -0.0001982232       -0.0008814272
 Cd         0.0005755902        0.0016195083        0.0001174635
 Cd         0.0022402998       -0.0018809654       -0.0008733381
 Cd        -0.0012013939        0.0000453463       -0.0005724822
 Cd        -0.0009074696       -0.0003368689       -0.0030980698
 Cd         0.0008705499        0.0009880783       -0.0013627173
 Cd         0.0018315172       -0.0013574906        0.0000725153
 Cd        -0.0006266900       -0.0019693893        0.0026871136
 Cd        -0.0000545530        0.0001504130        0.0007345298
 Cd         0.0012251030        0.0004865201        0.0005583756
 Cd         0.0002082104        0.0010943774        0.0001575105
 Cd         0.0002155543        0.0012669420       -0.0005242285
  S         0.0002421502        0.0012583923        0.0011178569
  S        -0.0010613121       -0.0008293254       -0.0016439430
  S         0.0007844692        0.0008736504       -0.0000745131
  S         0.0010557193        0.0005045692       -0.0023778072
  S         0.0016918088        0.0020508240       -0.0017810382
  S         0.0006277835        0.0007905843       -0.0004511292
  S         0.0002419510       -0.0013091992       -0.0011328319
  S        -0.0002514804        0.0012358613       -0.0006050419
  S         0.0028825501        0.0016039927       -0.0012375893
  S        -0.0002655662        0.0006838049        0.0038066078
  S        -0.0024599252        0.0019926127       -0.0012595239
  S        -0.0004167944       -0.0018367800        0.0000502946
  S         0.0005643314       -0.0013339432        0.0001926682
  S        -0.0010042502        0.0007530284        0.0015095632
  S        -0.0020884434       -0.0030437070       -0.0005979725
  S        -0.0011003448        0.0003223566        0.0010479568
  S         0.0008933977        0.0000716367        0.0001344615
  S        -0.0009713290       -0.0022819745        0.0003819008
  S         0.0016485317        0.0005381404       -0.0001746201
  S        -0.0021645852        0.0001211427        0.0002300985
  S        -0.0006189754       -0.0007111993       -0.0001847139
  S         0.0015494505        0.0022909688       -0.0004812392
  S         0.0013739224        0.0011671181        0.0026959467
  S         0.0010658573       -0.0019857978        0.0012304795
  S        -0.0106556026        0.0002158599       -0.0003062901
  S        -0.0000688037       -0.0009866178        0.0022956361
  S        -0.0002535531        0.0010385225       -0.0005023057
  S         0.0016195445       -0.0002103020        0.0004044119
  S         0.0019736855       -0.0014262304       -0.0010913124
  S        -0.0000681304       -0.0002138471       -0.0014359781
  S         0.0009427570       -0.0000398027        0.0006132735
  S        -0.0000167570        0.0002868242       -0.0006599819
  S         0.0012524854       -0.0017282434       -0.0013425102
      66
 i =        7, E =     -1858.4043009030
 Cd        -0.0019191808        0.0013347930       -0.0001671647
 Cd        -0.0001778136       -0.0026776369       -0.0009437280
 Cd         0.0004102530        0.0021498502        0.0023818599
 Cd        -0.0006734484       -0.0013981855       -0.0019979507
 Cd        -0.0002939569        0.0007110748        0.0001074574
 Cd         0.0013972311        0.0018062638        0.0015289469
 Cd        -0.0000722655       -0.0002286118        0.0006492570
 Cd        -0.0008180999       -0.0001015612        0.0007636742
 Cd        -0.0005006950       -0.0016942179       -0.0007436980
 Cd         0.0002716034       -0.0005837124       -0.0014038886
 Cd        -0.0002348835       -0.0001792018       -0.0003640257
 Cd         0.0015530898       -0.0002482740        0.0013499889
 Cd         0.0012530882        0.0007506339        0.0003535596
 Cd         0.0006016573        0.0007908486        0.0001093564
 Cd        -0.0011297731        0.0001659646        0.0025026618
 Cd         0.0002644623        0.0002845647       -0.0018685469
 Cd        -0.0004163585        0.0007105364       -0.0003670235
 Cd         0.0006569361        0.0005028147        0.0018238400
 Cd        -0.0014898598       -0.0017486913       -0.0003384136
 Cd        -0.0016825658        0.0010712002        0.0005191064
 Cd         0.0010452028       -0.0037530391        0.0006902500
 Cd        -0.0014901865        0.0010051036        0.0002119000
 Cd         0.0004787537        0.0009438485        0.0008716654
 Cd         0.0004771959       -0.0008108318       -0.0002946049
 Cd        -0.0033495820        0.0005566222       -0.0002454818
 Cd        -0.0011772790       -0.0008968584       -0.0016134886
 Cd        -0.0050791094        0.0013540115       -0.0006050400
 Cd         0.0009305077       -0.0027537336       -0.0004248065
 Cd        -0.0012841698       -0.0010175842        0.0000905626
 Cd        -0.0006018317       -0.0001027752        0.0001529963
 Cd        -0.0001864170        0.0006653121        0.0000697405
 Cd         0.0009254902        0.0000330656       -0.0009826930
 Cd         0.0001899311        0.0007246795       -0.0006210117
  S        -0.0004393584        0.0012701960        0.0013849570
  S        -0.0013630317       -0.0000745758       -0.0004330977
  S         0.0021520038       -0.0003706550        0.0008422335
  S        -0.0001627650        0.0003198779       -0.0040190332
  S         0.0015831123        0.0013765001       -0.0013037669
  S         0.0001921421        0.0014569928       -0.0002846614
  S         0.0005314395       -0.0005925702       -0.0008051092
  S         0.0014843948       -0.0001113852       -0.0007743084
  S         0.0008568079        0.0014551296        0.0000926809
  S        -0.0004951367        0.0008195672        0.0032734913
  S        -0.0014665640        0.0009270769       -0.0031913070
  S         0.0006460833       -0.0014225769        0.0013798911
  S         0.0008029884       -0.0024554000        0.0015361381
  S        -0.0001778775        0.0002583470        0.0012743632
  S         0.0003157210       -0.0021033530       -0.0002961976
  S        -0.0005228793        0.0010644634       -0.0007340186
  S         0.0005563836       -0.0011923872        0.0013293966
  S        -0.0014555635       -0.0020642940        0.0007545164
  S         0.0011242054        0.0006511113       -0.0009749225
  S        -0.0012319804        0.0003441570       -0.0012739217
  S        -0.0004155567       -0.0017093235       -0.0000605187
  S         0.0018624688        0.0014316148        0.0016407182
  S         0.0009649760        0.0000897836        0.0009102683
  S         0.0003418685       -0.0008079988        0.0014144563
  S         0.0035050633        0.0000747578       -0.0007187743
  S        -0.0008013324        0.0001353509        0.0015198334
  S        -0.0002248944        0.0029143190       -0.0009675463